LAMMPS data file for mol object with MOF-FF params from www.mofplus.org

       424 atoms
       512 bonds
       912 angles
      1536 dihedrals
       192 impropers
         7 atom types
         7 bond types
        11 angle types
        13 dihedral types
         3 improper types

    0.000000    26.138988  xlo xhi
    0.000000    26.138988  ylo yhi
    0.000000    26.138988  zlo zhi
   -0.000003    -0.000002    -0.000000  xy xz yz

Masses

    1    15.9994 # buck6d->(o4_mg4@mg4o)|mof5mg/gaussian->(o4_mg4@mg4o)|mof5mg
    2    15.9994 # buck6d->(o2_c1mg1@co2)|mof5mg/gaussian->(o2_c1mg1@co2)|mof5mg
    3    24.3050 # buck6d->(mg4_o4@mg4o)|mof5mg/gaussian->(mg4_o4@mg4o)|mof5mg
    4    12.0107 # buck6d->(c3_c1o2@co2)|mof5mg/gaussian->(c3_c1o2@co2)|mof5mg
    5    12.0107 # buck6d->(c3_c2h1@ph)|mof5mg/gaussian->(c3_c2h1@ph)|mof5mg
    6    12.0107 # buck6d->(c3_c3@ph)|mof5mg/gaussian->(c3_c3@ph)|mof5mg
    7     1.0079 # buck6d->(h1_c1@ph)|mof5mg/gaussian->(h1_c1@ph)|mof5mg

Atoms

         1     1     1   -1.82056    25.971039    25.968916    25.968801 # buck6d->(o4_mg4@mg4o)|mof5mg
         2     1     2   -0.70315    25.174332    25.172203     2.873232 # buck6d->(o2_c1mg1@co2)|mof5mg
         3     1     2   -0.70315     0.628753     0.626611     2.873241 # buck6d->(o2_c1mg1@co2)|mof5mg
         4     1     2   -0.70315     0.628767     2.873348     0.626524 # buck6d->(o2_c1mg1@co2)|mof5mg
         5     1     2   -0.70315    25.174356     2.873357    25.172107 # buck6d->(o2_c1mg1@co2)|mof5mg
         6     1     2   -0.70315    25.174347     0.626638    22.925373 # buck6d->(o2_c1mg1@co2)|mof5mg
         7     1     2   -0.70315     0.628750    25.172219    22.925377 # buck6d->(o2_c1mg1@co2)|mof5mg
         8     1     2   -0.70315    22.927613    25.172218     0.626498 # buck6d->(o2_c1mg1@co2)|mof5mg
         9     1     2   -0.70315    22.927622     0.626636    25.172089 # buck6d->(o2_c1mg1@co2)|mof5mg
        10     1     2   -0.70315     2.875474    25.172217    25.172099 # buck6d->(o2_c1mg1@co2)|mof5mg
        11     1     2   -0.70315     2.875484     0.626623     0.626519 # buck6d->(o2_c1mg1@co2)|mof5mg
        12     1     2   -0.70315     0.628752    22.925493    25.172098 # buck6d->(o2_c1mg1@co2)|mof5mg
        13     1     2   -0.70315    25.174336    22.925488     0.626504 # buck6d->(o2_c1mg1@co2)|mof5mg
        14     1     1   -1.82056    12.901545    25.968918    25.968750 # buck6d->(o4_mg4@mg4o)|mof5mg
        15     1     2   -0.70315    12.104837    25.172207    22.925330 # buck6d->(o2_c1mg1@co2)|mof5mg
        16     1     2   -0.70315    13.698246     0.626616    22.925321 # buck6d->(o2_c1mg1@co2)|mof5mg
        17     1     2   -0.70315    13.698260     2.873349    25.172042 # buck6d->(o2_c1mg1@co2)|mof5mg
        18     1     2   -0.70315    12.104865     2.873358     0.626457 # buck6d->(o2_c1mg1@co2)|mof5mg
        19     1     2   -0.70315    12.104855     0.626638     2.873189 # buck6d->(o2_c1mg1@co2)|mof5mg
        20     1     2   -0.70315    13.698243    25.172216     2.873185 # buck6d->(o2_c1mg1@co2)|mof5mg
        21     1     2   -0.70315     9.858116    25.172221    25.172064 # buck6d->(o2_c1mg1@co2)|mof5mg
        22     1     2   -0.70315     9.858130     0.626639     0.626472 # buck6d->(o2_c1mg1@co2)|mof5mg
        23     1     2   -0.70315    15.944970    25.172220     0.626466 # buck6d->(o2_c1mg1@co2)|mof5mg
        24     1     2   -0.70315    15.944976     0.626622    25.172043 # buck6d->(o2_c1mg1@co2)|mof5mg
        25     1     2   -0.70315    13.698249    22.925494     0.626460 # buck6d->(o2_c1mg1@co2)|mof5mg
        26     1     2   -0.70315    12.104837    22.925490    25.172056 # buck6d->(o2_c1mg1@co2)|mof5mg
        27     1     1   -1.82056    25.971092    12.899422    25.968799 # buck6d->(o4_mg4@mg4o)|mof5mg
        28     1     2   -0.70315    25.174394    12.102718    22.925376 # buck6d->(o2_c1mg1@co2)|mof5mg
        29     1     2   -0.70315     0.628796    13.696130    22.925371 # buck6d->(o2_c1mg1@co2)|mof5mg
        30     1     2   -0.70315     0.628790    15.942851    25.172102 # buck6d->(o2_c1mg1@co2)|mof5mg
        31     1     2   -0.70315    25.174384    15.942842     0.626518 # buck6d->(o2_c1mg1@co2)|mof5mg
        32     1     2   -0.70315    25.174397    13.696109     2.873239 # buck6d->(o2_c1mg1@co2)|mof5mg
        33     1     2   -0.70315     0.628814    12.102712     2.873231 # buck6d->(o2_c1mg1@co2)|mof5mg
        34     1     2   -0.70315    22.927668    12.102724    25.172097 # buck6d->(o2_c1mg1@co2)|mof5mg
        35     1     2   -0.70315    22.927666    13.696117     0.626518 # buck6d->(o2_c1mg1@co2)|mof5mg
        36     1     2   -0.70315     2.875534    12.102726     0.626497 # buck6d->(o2_c1mg1@co2)|mof5mg
        37     1     2   -0.70315     2.875523    13.696130    25.172087 # buck6d->(o2_c1mg1@co2)|mof5mg
        38     1     2   -0.70315     0.628814     9.855995     0.626506 # buck6d->(o2_c1mg1@co2)|mof5mg
        39     1     2   -0.70315    25.174389     9.855998    25.172103 # buck6d->(o2_c1mg1@co2)|mof5mg
        40     1     1   -1.82056    12.901598    12.899424    25.968748 # buck6d->(o4_mg4@mg4o)|mof5mg
        41     1     2   -0.70315    12.104898    12.102724     2.873183 # buck6d->(o2_c1mg1@co2)|mof5mg
        42     1     2   -0.70315    13.698293    13.696131     2.873188 # buck6d->(o2_c1mg1@co2)|mof5mg
        43     1     2   -0.70315    13.698285    15.942852     0.626457 # buck6d->(o2_c1mg1@co2)|mof5mg
        44     1     2   -0.70315    12.104885    15.942843    25.172041 # buck6d->(o2_c1mg1@co2)|mof5mg
        45     1     2   -0.70315    12.104901    13.696110    22.925320 # buck6d->(o2_c1mg1@co2)|mof5mg
        46     1     2   -0.70315    13.698305    12.102712    22.925328 # buck6d->(o2_c1mg1@co2)|mof5mg
        47     1     2   -0.70315     9.858176    12.102722     0.626459 # buck6d->(o2_c1mg1@co2)|mof5mg
        48     1     2   -0.70315     9.858170    13.696116    25.172040 # buck6d->(o2_c1mg1@co2)|mof5mg
        49     1     2   -0.70315    15.945026    12.102728    25.172062 # buck6d->(o2_c1mg1@co2)|mof5mg
        50     1     2   -0.70315    15.945020    13.696132     0.626472 # buck6d->(o2_c1mg1@co2)|mof5mg
        51     1     2   -0.70315    13.698306     9.855996    25.172055 # buck6d->(o2_c1mg1@co2)|mof5mg
        52     1     2   -0.70315    12.104901     9.856000     0.626461 # buck6d->(o2_c1mg1@co2)|mof5mg
        53     1     1   -1.82056    12.901543    25.968866    12.899256 # buck6d->(o4_mg4@mg4o)|mof5mg
        54     1     2   -0.70315    12.104852    25.172159    15.942684 # buck6d->(o2_c1mg1@co2)|mof5mg
        55     1     2   -0.70315    13.698249     0.626579    15.942679 # buck6d->(o2_c1mg1@co2)|mof5mg
        56     1     2   -0.70315    13.698248     2.873301    13.695956 # buck6d->(o2_c1mg1@co2)|mof5mg
        57     1     2   -0.70315    12.104841     2.873305    12.102561 # buck6d->(o2_c1mg1@co2)|mof5mg
        58     1     2   -0.70315    12.104836     0.626589     9.855836 # buck6d->(o2_c1mg1@co2)|mof5mg
        59     1     2   -0.70315    13.698238    25.172181     9.855827 # buck6d->(o2_c1mg1@co2)|mof5mg
        60     1     2   -0.70315     9.858124    25.172157    13.695969 # buck6d->(o2_c1mg1@co2)|mof5mg
        61     1     2   -0.70315     9.858118     0.626576    12.102573 # buck6d->(o2_c1mg1@co2)|mof5mg
        62     1     2   -0.70315    15.944971    25.172171    12.102546 # buck6d->(o2_c1mg1@co2)|mof5mg
        63     1     2   -0.70315    15.944971     0.626577    13.695954 # buck6d->(o2_c1mg1@co2)|mof5mg
        64     1     2   -0.70315    13.698254    22.925446    12.102547 # buck6d->(o2_c1mg1@co2)|mof5mg
        65     1     2   -0.70315    12.104858    22.925437    13.695953 # buck6d->(o2_c1mg1@co2)|mof5mg
        66     1     1   -1.82056    12.901596    12.899372    12.899254 # buck6d->(o4_mg4@mg4o)|mof5mg
        67     1     2   -0.70315    12.104900    12.102685     9.855825 # buck6d->(o2_c1mg1@co2)|mof5mg
        68     1     2   -0.70315    13.698304    13.696083     9.855834 # buck6d->(o2_c1mg1@co2)|mof5mg
        69     1     2   -0.70315    13.698303    15.942800    12.102562 # buck6d->(o2_c1mg1@co2)|mof5mg
        70     1     2   -0.70315    12.104892    15.942795    13.695952 # buck6d->(o2_c1mg1@co2)|mof5mg
        71     1     2   -0.70315    12.104897    13.696074    15.942678 # buck6d->(o2_c1mg1@co2)|mof5mg
        72     1     2   -0.70315    13.698290    12.102665    15.942682 # buck6d->(o2_c1mg1@co2)|mof5mg
        73     1     2   -0.70315     9.858168    12.102676    12.102545 # buck6d->(o2_c1mg1@co2)|mof5mg
        74     1     2   -0.70315     9.858172    13.696068    13.695956 # buck6d->(o2_c1mg1@co2)|mof5mg
        75     1     2   -0.70315    15.945016    12.102664    13.695965 # buck6d->(o2_c1mg1@co2)|mof5mg
        76     1     2   -0.70315    15.945025    13.696069    12.102568 # buck6d->(o2_c1mg1@co2)|mof5mg
        77     1     2   -0.70315    13.698283     9.855944    13.695952 # buck6d->(o2_c1mg1@co2)|mof5mg
        78     1     2   -0.70315    12.104886     9.855952    12.102546 # buck6d->(o2_c1mg1@co2)|mof5mg
        79     1     1   -1.82056    25.971090    12.899370    12.899305 # buck6d->(o4_mg4@mg4o)|mof5mg
        80     1     2   -0.70315    25.174394    12.102684    15.942734 # buck6d->(o2_c1mg1@co2)|mof5mg
        81     1     2   -0.70315     0.628811    13.696081    15.942725 # buck6d->(o2_c1mg1@co2)|mof5mg
        82     1     2   -0.70315     0.628812    15.942798    13.696000 # buck6d->(o2_c1mg1@co2)|mof5mg
        83     1     2   -0.70315    25.174393    15.942794    12.102605 # buck6d->(o2_c1mg1@co2)|mof5mg
        84     1     2   -0.70315    25.174390    13.696072     9.855881 # buck6d->(o2_c1mg1@co2)|mof5mg
        85     1     2   -0.70315     0.628796    12.102664     9.855877 # buck6d->(o2_c1mg1@co2)|mof5mg
        86     1     2   -0.70315    22.927662    12.102679    13.696012 # buck6d->(o2_c1mg1@co2)|mof5mg
        87     1     2   -0.70315    22.927667    13.696073    12.102604 # buck6d->(o2_c1mg1@co2)|mof5mg
        88     1     2   -0.70315     2.875522    12.102660    12.102593 # buck6d->(o2_c1mg1@co2)|mof5mg
        89     1     2   -0.70315     2.875530    13.696065    13.695991 # buck6d->(o2_c1mg1@co2)|mof5mg
        90     1     2   -0.70315     0.628785     9.855942    12.102607 # buck6d->(o2_c1mg1@co2)|mof5mg
        91     1     2   -0.70315    25.174377     9.855951    13.696014 # buck6d->(o2_c1mg1@co2)|mof5mg
        92     1     1   -1.82056    25.971038    25.968864    12.899307 # buck6d->(o4_mg4@mg4o)|mof5mg
        93     1     2   -0.70315    25.174345    25.172156     9.855878 # buck6d->(o2_c1mg1@co2)|mof5mg
        94     1     2   -0.70315     0.628752     0.626577     9.855883 # buck6d->(o2_c1mg1@co2)|mof5mg
        95     1     2   -0.70315     0.628753     2.873300    12.102607 # buck6d->(o2_c1mg1@co2)|mof5mg
        96     1     2   -0.70315    25.174332     2.873304    13.696000 # buck6d->(o2_c1mg1@co2)|mof5mg
        97     1     2   -0.70315    25.174330     0.626588    15.942726 # buck6d->(o2_c1mg1@co2)|mof5mg
        98     1     2   -0.70315     0.628746    25.172181    15.942735 # buck6d->(o2_c1mg1@co2)|mof5mg
        99     1     2   -0.70315    22.927618    25.172154    12.102594 # buck6d->(o2_c1mg1@co2)|mof5mg
       100     1     2   -0.70315    22.927612     0.626572    13.695990 # buck6d->(o2_c1mg1@co2)|mof5mg
       101     1     2   -0.70315     2.875477    25.172171    13.696015 # buck6d->(o2_c1mg1@co2)|mof5mg
       102     1     2   -0.70315     2.875476     0.626576    12.102606 # buck6d->(o2_c1mg1@co2)|mof5mg
       103     1     2   -0.70315     0.628761    22.925445    13.696017 # buck6d->(o2_c1mg1@co2)|mof5mg
       104     1     2   -0.70315    25.174354    22.925436    12.102611 # buck6d->(o2_c1mg1@co2)|mof5mg
       105     1     3    1.54157     0.979094    24.821874    24.821757 # buck6d->(mg4_o4@mg4o)|mof5mg
       106     1     3    1.54157    24.823991    24.821870     0.976848 # buck6d->(mg4_o4@mg4o)|mof5mg
       107     1     3    1.54157    24.824005     0.976979    24.821756 # buck6d->(mg4_o4@mg4o)|mof5mg
       108     1     3    1.54157     0.979102     0.976964     0.976863 # buck6d->(mg4_o4@mg4o)|mof5mg
       109     1     3    1.54157    14.048590    24.821875     0.976805 # buck6d->(mg4_o4@mg4o)|mof5mg
       110     1     3    1.54157    11.754495    24.821872    24.821713 # buck6d->(mg4_o4@mg4o)|mof5mg
       111     1     3    1.54157    11.754513     0.976980     0.976806 # buck6d->(mg4_o4@mg4o)|mof5mg
       112     1     3    1.54157    14.048594     0.976966    24.821700 # buck6d->(mg4_o4@mg4o)|mof5mg
       113     1     3    1.54157     0.979156    11.752378     0.976848 # buck6d->(mg4_o4@mg4o)|mof5mg
       114     1     3    1.54157    24.824048    11.752378    24.821756 # buck6d->(mg4_o4@mg4o)|mof5mg
       115     1     3    1.54157    24.824049    14.046459     0.976860 # buck6d->(mg4_o4@mg4o)|mof5mg
       116     1     3    1.54157     0.979140    14.046472    24.821753 # buck6d->(mg4_o4@mg4o)|mof5mg
       117     1     3    1.54157    14.048648    11.752378    24.821712 # buck6d->(mg4_o4@mg4o)|mof5mg
       118     1     3    1.54157    11.754557    11.752380     0.976803 # buck6d->(mg4_o4@mg4o)|mof5mg
       119     1     3    1.54157    11.754552    14.046460    24.821698 # buck6d->(mg4_o4@mg4o)|mof5mg
       120     1     3    1.54157    14.048636    14.046474     0.976806 # buck6d->(mg4_o4@mg4o)|mof5mg
       121     1     3    1.54157    14.048588    24.821829    11.752205 # buck6d->(mg4_o4@mg4o)|mof5mg
       122     1     3    1.54157    11.754507    24.821816    14.046302 # buck6d->(mg4_o4@mg4o)|mof5mg
       123     1     3    1.54157    11.754496     0.976923    11.752219 # buck6d->(mg4_o4@mg4o)|mof5mg
       124     1     3    1.54157    14.048591     0.976921    14.046298 # buck6d->(mg4_o4@mg4o)|mof5mg
       125     1     3    1.54157    14.048633    11.752322    14.046300 # buck6d->(mg4_o4@mg4o)|mof5mg
       126     1     3    1.54157    11.754551    11.752335    11.752204 # buck6d->(mg4_o4@mg4o)|mof5mg
       127     1     3    1.54157    11.754552    14.046414    14.046297 # buck6d->(mg4_o4@mg4o)|mof5mg
       128     1     3    1.54157    14.048646    14.046418    11.752218 # buck6d->(mg4_o4@mg4o)|mof5mg
       129     1     3    1.54157     0.979138    11.752320    11.752259 # buck6d->(mg4_o4@mg4o)|mof5mg
       130     1     3    1.54157    24.824044    11.752334    14.046355 # buck6d->(mg4_o4@mg4o)|mof5mg
       131     1     3    1.54157    24.824048    14.046414    11.752262 # buck6d->(mg4_o4@mg4o)|mof5mg
       132     1     3    1.54157     0.979153    14.046415    14.046342 # buck6d->(mg4_o4@mg4o)|mof5mg
       133     1     3    1.54157     0.979095    24.821829    14.046357 # buck6d->(mg4_o4@mg4o)|mof5mg
       134     1     3    1.54157    24.824002    24.821814    11.752261 # buck6d->(mg4_o4@mg4o)|mof5mg
       135     1     3    1.54157    24.823990     0.976922    14.046343 # buck6d->(mg4_o4@mg4o)|mof5mg
       136     1     3    1.54157     0.979096     0.976920    11.752263 # buck6d->(mg4_o4@mg4o)|mof5mg
       137     1     4    0.59958    25.971036    25.968897     3.472391 # buck6d->(c3_c1o2@co2)|mof5mg
       138     1     4    0.59958    25.971058     3.472506    25.968809 # buck6d->(c3_c1o2@co2)|mof5mg
       139     1     4    0.59958    25.971040    25.968920    22.326221 # buck6d->(c3_c1o2@co2)|mof5mg
       140     1     4    0.59958    22.328461    25.968920    25.968784 # buck6d->(c3_c1o2@co2)|mof5mg
       141     1     4    0.59958     3.474630    25.968915    25.968801 # buck6d->(c3_c1o2@co2)|mof5mg
       142     1     4    0.59958    25.971040    22.326337    25.968796 # buck6d->(c3_c1o2@co2)|mof5mg
       143     1     4    0.59958    12.901540    25.968901    22.326172 # buck6d->(c3_c1o2@co2)|mof5mg
       144     1     4    0.59958    12.901565     3.472508    25.968744 # buck6d->(c3_c1o2@co2)|mof5mg
       145     1     4    0.59958    12.901546    25.968918     3.472341 # buck6d->(c3_c1o2@co2)|mof5mg
       146     1     4    0.59958     9.258967    25.968923    25.968766 # buck6d->(c3_c1o2@co2)|mof5mg
       147     1     4    0.59958    16.544125    25.968916    25.968751 # buck6d->(c3_c1o2@co2)|mof5mg
       148     1     4    0.59958    12.901545    22.326338    25.968751 # buck6d->(c3_c1o2@co2)|mof5mg
       149     1     4    0.59958    25.971090    12.899421    22.326219 # buck6d->(c3_c1o2@co2)|mof5mg
       150     1     4    0.59958    25.971076    16.542001    25.968804 # buck6d->(c3_c1o2@co2)|mof5mg
       151     1     4    0.59958    25.971099    12.899407     3.472389 # buck6d->(c3_c1o2@co2)|mof5mg
       152     1     4    0.59958    22.328512    12.899422    25.968799 # buck6d->(c3_c1o2@co2)|mof5mg
       153     1     4    0.59958     3.474682    12.899428    25.968782 # buck6d->(c3_c1o2@co2)|mof5mg
       154     1     4    0.59958    25.971092     9.256843    25.968800 # buck6d->(c3_c1o2@co2)|mof5mg
       155     1     4    0.59958    12.901597    12.899424     3.472340 # buck6d->(c3_c1o2@co2)|mof5mg
       156     1     4    0.59958    12.901580    16.542002    25.968744 # buck6d->(c3_c1o2@co2)|mof5mg
       157     1     4    0.59958    12.901603    12.899407    22.326170 # buck6d->(c3_c1o2@co2)|mof5mg
       158     1     4    0.59958     9.259018    12.899420    25.968747 # buck6d->(c3_c1o2@co2)|mof5mg
       159     1     4    0.59958    16.544176    12.899429    25.968765 # buck6d->(c3_c1o2@co2)|mof5mg
       160     1     4    0.59958    12.901600     9.256844    25.968751 # buck6d->(c3_c1o2@co2)|mof5mg
       161     1     4    0.59958    12.901548    25.968865    16.541835 # buck6d->(c3_c1o2@co2)|mof5mg
       162     1     4    0.59958    12.901547     3.472457    12.899257 # buck6d->(c3_c1o2@co2)|mof5mg
       163     1     4    0.59958    12.901536    25.968883     9.256677 # buck6d->(c3_c1o2@co2)|mof5mg
       164     1     4    0.59958     9.258965    25.968861    12.899274 # buck6d->(c3_c1o2@co2)|mof5mg
       165     1     4    0.59958    16.544123    25.968866    12.899253 # buck6d->(c3_c1o2@co2)|mof5mg
       166     1     4    0.59958    12.901560    22.326288    12.899250 # buck6d->(c3_c1o2@co2)|mof5mg
       167     1     4    0.59958    12.901602    12.899388     9.256676 # buck6d->(c3_c1o2@co2)|mof5mg
       168     1     4    0.59958    12.901595    16.541951    12.899256 # buck6d->(c3_c1o2@co2)|mof5mg
       169     1     4    0.59958    12.901595    12.899372    16.541834 # buck6d->(c3_c1o2@co2)|mof5mg
       170     1     4    0.59958     9.259016    12.899371    12.899253 # buck6d->(c3_c1o2@co2)|mof5mg
       171     1     4    0.59958    16.544174    12.899367    12.899270 # buck6d->(c3_c1o2@co2)|mof5mg
       172     1     4    0.59958    12.901581     9.256794    12.899249 # buck6d->(c3_c1o2@co2)|mof5mg
       173     1     4    0.59958    25.971096    12.899386    16.541883 # buck6d->(c3_c1o2@co2)|mof5mg
       174     1     4    0.59958    25.971094    16.541950    12.899304 # buck6d->(c3_c1o2@co2)|mof5mg
       175     1     4    0.59958    25.971089    12.899371     9.256725 # buck6d->(c3_c1o2@co2)|mof5mg
       176     1     4    0.59958    22.328511    12.899375    12.899305 # buck6d->(c3_c1o2@co2)|mof5mg
       177     1     4    0.59958     3.474680    12.899363    12.899288 # buck6d->(c3_c1o2@co2)|mof5mg
       178     1     4    0.59958    25.971071     9.256792    12.899310 # buck6d->(c3_c1o2@co2)|mof5mg
       179     1     4    0.59958    25.971040    25.968863     9.256727 # buck6d->(c3_c1o2@co2)|mof5mg
       180     1     4    0.59958    25.971039     3.472456    12.899305 # buck6d->(c3_c1o2@co2)|mof5mg
       181     1     4    0.59958    25.971031    25.968883    16.541885 # buck6d->(c3_c1o2@co2)|mof5mg
       182     1     4    0.59958    22.328459    25.968858    12.899288 # buck6d->(c3_c1o2@co2)|mof5mg
       183     1     4    0.59958     3.474629    25.968867    12.899308 # buck6d->(c3_c1o2@co2)|mof5mg
       184     1     4    0.59958    25.971056    22.326286    12.899313 # buck6d->(c3_c1o2@co2)|mof5mg
       185     1     5   -0.18824     5.671640     0.688073     0.687942 # buck6d->(c3_c2h1@ph)|mof5mg
       186     1     5   -0.18824     7.061976     0.688075     0.687933 # buck6d->(c3_c2h1@ph)|mof5mg
       187     1     6    0.14833     7.765303    25.968922    25.968775 # buck6d->(c3_c3@ph)|mof5mg
       188     1     5   -0.18824     7.061962    25.110779    25.110637 # buck6d->(c3_c2h1@ph)|mof5mg
       189     1     5   -0.18824     5.671627    25.110777    25.110646 # buck6d->(c3_c2h1@ph)|mof5mg
       190     1     6    0.14833     4.968294    25.968918    25.968792 # buck6d->(c3_c3@ph)|mof5mg
       191     1     5   -0.18824    20.131468     0.688069    25.110626 # buck6d->(c3_c2h1@ph)|mof5mg
       192     1     5   -0.18824    18.741132     0.688068    25.110617 # buck6d->(c3_c2h1@ph)|mof5mg
       193     1     6    0.14833    18.037788    25.968917    25.968759 # buck6d->(c3_c3@ph)|mof5mg
       194     1     5   -0.18824    18.741123    25.110779     0.687920 # buck6d->(c3_c2h1@ph)|mof5mg
       195     1     5   -0.18824    20.131458    25.110780     0.687928 # buck6d->(c3_c2h1@ph)|mof5mg
       196     1     6    0.14833    20.834797    25.968919    25.968775 # buck6d->(c3_c3@ph)|mof5mg
       197     1     5   -0.18824    25.112927     5.669511    25.110667 # buck6d->(c3_c2h1@ph)|mof5mg
       198     1     5   -0.18824    25.112935     7.059846    25.110665 # buck6d->(c3_c2h1@ph)|mof5mg
       199     1     6    0.14833    25.971084     7.763179    25.968803 # buck6d->(c3_c3@ph)|mof5mg
       200     1     5   -0.18824     0.690238     7.059839     0.687955 # buck6d->(c3_c2h1@ph)|mof5mg
       201     1     5   -0.18824     0.690230     5.669503     0.687957 # buck6d->(c3_c2h1@ph)|mof5mg
       202     1     6    0.14833    25.971067     4.966170    25.968808 # buck6d->(c3_c3@ph)|mof5mg
       203     1     5   -0.18824    25.112912    20.129332     0.687951 # buck6d->(c3_c2h1@ph)|mof5mg
       204     1     5   -0.18824    25.112921    18.738997     0.687953 # buck6d->(c3_c2h1@ph)|mof5mg
       205     1     6    0.14833    25.971067    18.035664    25.968802 # buck6d->(c3_c3@ph)|mof5mg
       206     1     5   -0.18824     0.690217    18.739005    25.110660 # buck6d->(c3_c2h1@ph)|mof5mg
       207     1     5   -0.18824     0.690208    20.129341    25.110659 # buck6d->(c3_c2h1@ph)|mof5mg
       208     1     6    0.14833    25.971049    20.832673    25.968798 # buck6d->(c3_c3@ph)|mof5mg
       209     1     5   -0.18824    25.112896    25.110741     5.669387 # buck6d->(c3_c2h1@ph)|mof5mg
       210     1     5   -0.18824    25.112897    25.110732     7.059722 # buck6d->(c3_c2h1@ph)|mof5mg
       211     1     6    0.14833    25.971039    25.968871     7.763063 # buck6d->(c3_c3@ph)|mof5mg
       212     1     5   -0.18824     0.690195     0.688030     7.059731 # buck6d->(c3_c2h1@ph)|mof5mg
       213     1     5   -0.18824     0.690193     0.688038     5.669396 # buck6d->(c3_c2h1@ph)|mof5mg
       214     1     6    0.14833    25.971037    25.968888     4.966054 # buck6d->(c3_c3@ph)|mof5mg
       215     1     5   -0.18824     0.690189    25.110764    20.129225 # buck6d->(c3_c2h1@ph)|mof5mg
       216     1     5   -0.18824     0.690187    25.110755    18.738890 # buck6d->(c3_c2h1@ph)|mof5mg
       217     1     6    0.14833    25.971033    25.968893    18.035549 # buck6d->(c3_c3@ph)|mof5mg
       218     1     5   -0.18824    25.112896     0.688053    18.738881 # buck6d->(c3_c2h1@ph)|mof5mg
       219     1     5   -0.18824    25.112899     0.688062    20.129216 # buck6d->(c3_c2h1@ph)|mof5mg
       220     1     6    0.14833    25.971038    25.968912    20.832557 # buck6d->(c3_c3@ph)|mof5mg
       221     1     5   -0.18824    12.043438     5.669513     0.687899 # buck6d->(c3_c2h1@ph)|mof5mg
       222     1     5   -0.18824    12.043447     7.059848     0.687901 # buck6d->(c3_c2h1@ph)|mof5mg
       223     1     6    0.14833    12.901592     7.763180    25.968749 # buck6d->(c3_c3@ph)|mof5mg
       224     1     5   -0.18824    13.759731     7.059839    25.110608 # buck6d->(c3_c2h1@ph)|mof5mg
       225     1     5   -0.18824    13.759722     5.669504    25.110606 # buck6d->(c3_c2h1@ph)|mof5mg
       226     1     6    0.14833    12.901575     4.966172    25.968746 # buck6d->(c3_c3@ph)|mof5mg
       227     1     5   -0.18824    12.043412    20.129333    25.110609 # buck6d->(c3_c2h1@ph)|mof5mg
       228     1     5   -0.18824    12.043421    18.738998    25.110607 # buck6d->(c3_c2h1@ph)|mof5mg
       229     1     6    0.14833    12.901570    18.035666    25.968746 # buck6d->(c3_c3@ph)|mof5mg
       230     1     5   -0.18824    13.759713    18.739007     0.687897 # buck6d->(c3_c2h1@ph)|mof5mg
       231     1     5   -0.18824    13.759704    20.129342     0.687899 # buck6d->(c3_c2h1@ph)|mof5mg
       232     1     6    0.14833    12.901553    20.832674    25.968749 # buck6d->(c3_c3@ph)|mof5mg
       233     1     5   -0.18824    12.043405     0.688062     5.669345 # buck6d->(c3_c2h1@ph)|mof5mg
       234     1     5   -0.18824    12.043403     0.688053     7.059681 # buck6d->(c3_c2h1@ph)|mof5mg
       235     1     6    0.14833    12.901538    25.968892     7.763014 # buck6d->(c3_c3@ph)|mof5mg
       236     1     5   -0.18824    13.759679    25.110753     7.059673 # buck6d->(c3_c2h1@ph)|mof5mg
       237     1     5   -0.18824    13.759682    25.110761     5.669338 # buck6d->(c3_c2h1@ph)|mof5mg
       238     1     6    0.14833    12.901543    25.968910     4.966005 # buck6d->(c3_c3@ph)|mof5mg
       239     1     5   -0.18824    13.759687     0.688043    20.129167 # buck6d->(c3_c2h1@ph)|mof5mg
       240     1     5   -0.18824    13.759689     0.688034    18.738832 # buck6d->(c3_c2h1@ph)|mof5mg
       241     1     6    0.14833    12.901546    25.968874    18.035499 # buck6d->(c3_c3@ph)|mof5mg
       242     1     5   -0.18824    12.043405    25.110734    18.738840 # buck6d->(c3_c2h1@ph)|mof5mg
       243     1     5   -0.18824    12.043403    25.110743    20.129175 # buck6d->(c3_c2h1@ph)|mof5mg
       244     1     6    0.14833    12.901542    25.968892    20.832508 # buck6d->(c3_c3@ph)|mof5mg
       245     1     5   -0.18824     5.671689    12.041284     0.687922 # buck6d->(c3_c2h1@ph)|mof5mg
       246     1     5   -0.18824     7.062024    12.041282     0.687913 # buck6d->(c3_c2h1@ph)|mof5mg
       247     1     6    0.14833     7.765354    12.899422    25.968755 # buck6d->(c3_c3@ph)|mof5mg
       248     1     5   -0.18824     7.062013    13.757564    25.110616 # buck6d->(c3_c2h1@ph)|mof5mg
       249     1     5   -0.18824     5.671678    13.757566    25.110625 # buck6d->(c3_c2h1@ph)|mof5mg
       250     1     6    0.14833     4.968345    12.899426    25.968773 # buck6d->(c3_c3@ph)|mof5mg
       251     1     5   -0.18824    20.131516    12.041286    25.110642 # buck6d->(c3_c2h1@ph)|mof5mg
       252     1     5   -0.18824    18.741180    12.041288    25.110633 # buck6d->(c3_c2h1@ph)|mof5mg
       253     1     6    0.14833    18.037840    12.899428    25.968774 # buck6d->(c3_c3@ph)|mof5mg
       254     1     5   -0.18824    18.741175    13.757565     0.687935 # buck6d->(c3_c2h1@ph)|mof5mg
       255     1     5   -0.18824    20.131510    13.757563     0.687944 # buck6d->(c3_c2h1@ph)|mof5mg
       256     1     6    0.14833    20.834848    12.899424    25.968791 # buck6d->(c3_c3@ph)|mof5mg
       257     1     5   -0.18824    25.112954    13.757535     5.669393 # buck6d->(c3_c2h1@ph)|mof5mg
       258     1     5   -0.18824    25.112951    13.757526     7.059728 # buck6d->(c3_c2h1@ph)|mof5mg
       259     1     6    0.14833    25.971092    12.899379     7.763061 # buck6d->(c3_c3@ph)|mof5mg
       260     1     5   -0.18824     0.690246    12.041242     7.059721 # buck6d->(c3_c2h1@ph)|mof5mg
       261     1     5   -0.18824     0.690249    12.041251     5.669385 # buck6d->(c3_c2h1@ph)|mof5mg
       262     1     6    0.14833    25.971097    12.899397     4.966053 # buck6d->(c3_c3@ph)|mof5mg
       263     1     5   -0.18824     0.690242    13.757555    20.129215 # buck6d->(c3_c2h1@ph)|mof5mg
       264     1     5   -0.18824     0.690243    13.757546    18.738879 # buck6d->(c3_c2h1@ph)|mof5mg
       265     1     6    0.14833    25.971095    12.899395    18.035547 # buck6d->(c3_c3@ph)|mof5mg
       266     1     5   -0.18824    25.112957    12.041253    18.738888 # buck6d->(c3_c2h1@ph)|mof5mg
       267     1     5   -0.18824    25.112956    12.041262    20.129223 # buck6d->(c3_c2h1@ph)|mof5mg
       268     1     6    0.14833    25.971092    12.899413    20.832556 # buck6d->(c3_c3@ph)|mof5mg
       269     1     5   -0.18824    12.043458    12.041269     5.669335 # buck6d->(c3_c2h1@ph)|mof5mg
       270     1     5   -0.18824    12.043460    12.041259     7.059671 # buck6d->(c3_c2h1@ph)|mof5mg
       271     1     6    0.14833    12.901601    12.899398     7.763012 # buck6d->(c3_c3@ph)|mof5mg
       272     1     5   -0.18824    13.759741    13.757545     7.059680 # buck6d->(c3_c2h1@ph)|mof5mg
       273     1     5   -0.18824    13.759740    13.757555     5.669345 # buck6d->(c3_c2h1@ph)|mof5mg
       274     1     6    0.14833    12.901598    12.899416     4.966003 # buck6d->(c3_c3@ph)|mof5mg
       275     1     5   -0.18824    13.759739    12.041248    20.129174 # buck6d->(c3_c2h1@ph)|mof5mg
       276     1     5   -0.18824    13.759737    12.041239    18.738838 # buck6d->(c3_c2h1@ph)|mof5mg
       277     1     6    0.14833    12.901597    12.899380    18.035498 # buck6d->(c3_c3@ph)|mof5mg
       278     1     5   -0.18824    12.043460    13.757530    18.738830 # buck6d->(c3_c2h1@ph)|mof5mg
       279     1     5   -0.18824    12.043461    13.757539    20.129165 # buck6d->(c3_c2h1@ph)|mof5mg