LAMMPS data file for mol object with MOF-FF params from www.mofplus.org

       424 atoms
       512 bonds
       912 angles
      1536 dihedrals
       192 impropers
         7 atom types
         7 bond types
        11 angle types
        13 dihedral types
         3 improper types

    0.000000    27.760289  xlo xhi
    0.000000    27.760288  ylo yhi
    0.000000    27.760289  zlo zhi
   -0.000002    -0.000000     0.000001  xy xz yz

Masses

    1    15.9994 # buck6d->(o4_ca4@ca4o)|mof5ca/gaussian->(o4_ca4@ca4o)|mof5ca
    2    15.9994 # buck6d->(o2_c1ca1@co2)|mof5ca/gaussian->(o2_c1ca1@co2)|mof5ca
    3    40.0780 # buck6d->(ca4_o4@ca4o)|mof5ca/gaussian->(ca4_o4@ca4o)|mof5ca
    4    12.0107 # buck6d->(c3_c1o2@co2)|mof5ca/gaussian->(c3_c1o2@co2)|mof5ca
    5    12.0107 # buck6d->(c3_c2h1@ph)|mof5ca/gaussian->(c3_c2h1@ph)|mof5ca
    6    12.0107 # buck6d->(c3_c3@ph)|mof5ca/gaussian->(c3_c3@ph)|mof5ca
    7     1.0079 # buck6d->(h1_c1@ph)|mof5ca/gaussian->(h1_c1@ph)|mof5ca

Atoms

         1     1     1   -1.65356    27.615894    27.613638    27.613514 # buck6d->(o4_ca4@ca4o)|mof5ca
         2     1     2   -0.74268    26.820852    26.818588     3.289763 # buck6d->(o2_c1ca1@co2)|mof5ca
         3     1     2   -0.74268     0.650639     0.648364     3.289772 # buck6d->(o2_c1ca1@co2)|mof5ca
         4     1     2   -0.74268     0.650655     3.289887     0.648271 # buck6d->(o2_c1ca1@co2)|mof5ca
         5     1     2   -0.74268    26.820876     3.289896    26.818489 # buck6d->(o2_c1ca1@co2)|mof5ca
         6     1     2   -0.74268    26.820866     0.648395    24.176967 # buck6d->(o2_c1ca1@co2)|mof5ca
         7     1     2   -0.74268     0.650638    26.818608    24.176973 # buck6d->(o2_c1ca1@co2)|mof5ca
         8     1     2   -0.74268    24.179348    26.818606     0.648245 # buck6d->(o2_c1ca1@co2)|mof5ca
         9     1     2   -0.74268    24.179358     0.648390    26.818466 # buck6d->(o2_c1ca1@co2)|mof5ca
        10     1     2   -0.74268     3.292146    26.818606    26.818479 # buck6d->(o2_c1ca1@co2)|mof5ca
        11     1     2   -0.74268     3.292155     0.648379     0.648266 # buck6d->(o2_c1ca1@co2)|mof5ca
        12     1     2   -0.74268     0.650640    24.177097    26.818477 # buck6d->(o2_c1ca1@co2)|mof5ca
        13     1     2   -0.74268    26.820854    24.177090     0.648251 # buck6d->(o2_c1ca1@co2)|mof5ca
        14     1     1   -1.65356    13.735749    27.613640    27.613460 # buck6d->(o4_ca4@ca4o)|mof5ca
        15     1     2   -0.74268    12.940708    26.818592    24.176922 # buck6d->(o2_c1ca1@co2)|mof5ca
        16     1     2   -0.74268    14.530783     0.648370    24.176913 # buck6d->(o2_c1ca1@co2)|mof5ca
        17     1     2   -0.74268    14.530800     3.289889    26.818418 # buck6d->(o2_c1ca1@co2)|mof5ca
        18     1     2   -0.74268    12.940734     3.289897     0.648201 # buck6d->(o2_c1ca1@co2)|mof5ca
        19     1     2   -0.74268    12.940722     0.648393     3.289718 # buck6d->(o2_c1ca1@co2)|mof5ca
        20     1     2   -0.74268    14.530780    26.818604     3.289713 # buck6d->(o2_c1ca1@co2)|mof5ca
        21     1     2   -0.74268    10.299203    26.818609    26.818441 # buck6d->(o2_c1ca1@co2)|mof5ca
        22     1     2   -0.74268    10.299215     0.648393     0.648217 # buck6d->(o2_c1ca1@co2)|mof5ca
        23     1     2   -0.74268    17.172291    26.818607     0.648209 # buck6d->(o2_c1ca1@co2)|mof5ca
        24     1     2   -0.74268    17.172299     0.648379    26.818418 # buck6d->(o2_c1ca1@co2)|mof5ca
        25     1     2   -0.74268    14.530785    24.177098     0.648203 # buck6d->(o2_c1ca1@co2)|mof5ca
        26     1     2   -0.74268    12.940708    24.177092    26.818431 # buck6d->(o2_c1ca1@co2)|mof5ca
        27     1     1   -1.65356    27.615950    13.733494    27.613513 # buck6d->(o4_ca4@ca4o)|mof5ca
        28     1     2   -0.74268    26.820918    12.938456    24.176972 # buck6d->(o2_c1ca1@co2)|mof5ca
        29     1     2   -0.74268     0.650688    14.528536    24.176965 # buck6d->(o2_c1ca1@co2)|mof5ca
        30     1     2   -0.74268     0.650681    17.170041    26.818481 # buck6d->(o2_c1ca1@co2)|mof5ca
        31     1     2   -0.74268    26.820904    17.170031     0.648265 # buck6d->(o2_c1ca1@co2)|mof5ca
        32     1     2   -0.74268    26.820919    14.528513     3.289770 # buck6d->(o2_c1ca1@co2)|mof5ca
        33     1     2   -0.74268     0.650704    12.938448     3.289762 # buck6d->(o2_c1ca1@co2)|mof5ca
        34     1     2   -0.74268    24.179408    12.938463    26.818476 # buck6d->(o2_c1ca1@co2)|mof5ca
        35     1     2   -0.74268    24.179403    14.528522     0.648265 # buck6d->(o2_c1ca1@co2)|mof5ca
        36     1     2   -0.74268     3.292208    12.938463     0.648243 # buck6d->(o2_c1ca1@co2)|mof5ca
        37     1     2   -0.74268     3.292198    14.528536    26.818465 # buck6d->(o2_c1ca1@co2)|mof5ca
        38     1     2   -0.74268     0.650703    10.296946     0.648254 # buck6d->(o2_c1ca1@co2)|mof5ca
        39     1     2   -0.74268    26.820913    10.296952    26.818483 # buck6d->(o2_c1ca1@co2)|mof5ca
        40     1     1   -1.65356    13.735805    13.733496    27.613458 # buck6d->(o4_ca4@ca4o)|mof5ca
        41     1     2   -0.74268    12.940771    12.938462     3.289711 # buck6d->(o2_c1ca1@co2)|mof5ca
        42     1     2   -0.74268    14.530834    14.528537     3.289717 # buck6d->(o2_c1ca1@co2)|mof5ca
        43     1     2   -0.74268    14.530824    17.170041     0.648200 # buck6d->(o2_c1ca1@co2)|mof5ca
        44     1     2   -0.74268    12.940756    17.170033    26.818418 # buck6d->(o2_c1ca1@co2)|mof5ca
        45     1     2   -0.74268    12.940776    14.528516    24.176912 # buck6d->(o2_c1ca1@co2)|mof5ca
        46     1     2   -0.74268    14.530845    12.938447    24.176921 # buck6d->(o2_c1ca1@co2)|mof5ca
        47     1     2   -0.74268    10.299264    12.938459     0.648202 # buck6d->(o2_c1ca1@co2)|mof5ca
        48     1     2   -0.74268    10.299258    14.528523    26.818416 # buck6d->(o2_c1ca1@co2)|mof5ca
        49     1     2   -0.74268    17.172351    12.938467    26.818439 # buck6d->(o2_c1ca1@co2)|mof5ca
        50     1     2   -0.74268    17.172344    14.528537     0.648219 # buck6d->(o2_c1ca1@co2)|mof5ca
        51     1     2   -0.74268    14.530848    10.296948    26.818430 # buck6d->(o2_c1ca1@co2)|mof5ca
        52     1     2   -0.74268    12.940774    10.296954     0.648204 # buck6d->(o2_c1ca1@co2)|mof5ca
        53     1     1   -1.65356    13.735747    27.613584    13.733316 # buck6d->(o4_ca4@ca4o)|mof5ca
        54     1     2   -0.74268    12.940721    26.818543    17.169863 # buck6d->(o2_c1ca1@co2)|mof5ca
        55     1     2   -0.74268    14.530786     0.648330    17.169857 # buck6d->(o2_c1ca1@co2)|mof5ca
        56     1     2   -0.74268    14.530785     3.289837    14.528349 # buck6d->(o2_c1ca1@co2)|mof5ca
        57     1     2   -0.74268    12.940709     3.289843    12.938286 # buck6d->(o2_c1ca1@co2)|mof5ca
        58     1     2   -0.74268    12.940704     0.648344    10.296778 # buck6d->(o2_c1ca1@co2)|mof5ca
        59     1     2   -0.74268    14.530774    26.818566    10.296770 # buck6d->(o2_c1ca1@co2)|mof5ca
        60     1     2   -0.74268    10.299209    26.818542    14.528365 # buck6d->(o2_c1ca1@co2)|mof5ca
        61     1     2   -0.74268    10.299203     0.648327    12.938301 # buck6d->(o2_c1ca1@co2)|mof5ca
        62     1     2   -0.74268    17.172294    26.818554    12.938271 # buck6d->(o2_c1ca1@co2)|mof5ca
        63     1     2   -0.74268    17.172291     0.648328    14.528347 # buck6d->(o2_c1ca1@co2)|mof5ca
        64     1     2   -0.74268    14.530794    24.177046    12.938274 # buck6d->(o2_c1ca1@co2)|mof5ca
        65     1     2   -0.74268    12.940727    24.177037    14.528346 # buck6d->(o2_c1ca1@co2)|mof5ca
        66     1     1   -1.65356    13.735803    13.733440    13.733314 # buck6d->(o4_ca4@ca4o)|mof5ca
        67     1     2   -0.74268    12.940773    12.938420    10.296767 # buck6d->(o2_c1ca1@co2)|mof5ca
        68     1     2   -0.74268    14.530844    14.528487    10.296777 # buck6d->(o2_c1ca1@co2)|mof5ca
        69     1     2   -0.74268    14.530844    17.169987    12.938287 # buck6d->(o2_c1ca1@co2)|mof5ca
        70     1     2   -0.74268    12.940765    17.169980    14.528346 # buck6d->(o2_c1ca1@co2)|mof5ca
        71     1     2   -0.74268    12.940771    14.528476    17.169855 # buck6d->(o2_c1ca1@co2)|mof5ca
        72     1     2   -0.74268    14.530831    12.938399    17.169861 # buck6d->(o2_c1ca1@co2)|mof5ca
        73     1     2   -0.74268    10.299255    12.938409    12.938271 # buck6d->(o2_c1ca1@co2)|mof5ca
        74     1     2   -0.74268    10.299261    14.528469    14.528349 # buck6d->(o2_c1ca1@co2)|mof5ca
        75     1     2   -0.74268    17.172340    12.938399    14.528361 # buck6d->(o2_c1ca1@co2)|mof5ca
        76     1     2   -0.74268    17.172349    14.528471    12.938295 # buck6d->(o2_c1ca1@co2)|mof5ca
        77     1     2   -0.74268    14.530822    10.296894    14.528345 # buck6d->(o2_c1ca1@co2)|mof5ca
        78     1     2   -0.74268    12.940757    10.296902    12.938272 # buck6d->(o2_c1ca1@co2)|mof5ca
        79     1     1   -1.65356    27.615947    13.733438    13.733368 # buck6d->(o4_ca4@ca4o)|mof5ca
        80     1     2   -0.74268    26.820918    12.938418    17.169915 # buck6d->(o2_c1ca1@co2)|mof5ca
        81     1     2   -0.74268     0.650700    14.528486    17.169906 # buck6d->(o2_c1ca1@co2)|mof5ca
        82     1     2   -0.74268     0.650703    17.169986    14.528398 # buck6d->(o2_c1ca1@co2)|mof5ca
        83     1     2   -0.74268    26.820916    17.169980    12.938335 # buck6d->(o2_c1ca1@co2)|mof5ca
        84     1     2   -0.74268    26.820913    14.528473    10.296827 # buck6d->(o2_c1ca1@co2)|mof5ca
        85     1     2   -0.74268     0.650687    12.938398    10.296821 # buck6d->(o2_c1ca1@co2)|mof5ca
        86     1     2   -0.74268    24.179400    12.938413    14.528410 # buck6d->(o2_c1ca1@co2)|mof5ca
        87     1     2   -0.74268    24.179406    14.528476    12.938334 # buck6d->(o2_c1ca1@co2)|mof5ca
        88     1     2   -0.74268     3.292196    12.938394    12.938320 # buck6d->(o2_c1ca1@co2)|mof5ca
        89     1     2   -0.74268     3.292205    14.528465    14.528387 # buck6d->(o2_c1ca1@co2)|mof5ca
        90     1     2   -0.74268     0.650673    10.296892    12.938337 # buck6d->(o2_c1ca1@co2)|mof5ca
        91     1     2   -0.74268    26.820897    10.296901    14.528410 # buck6d->(o2_c1ca1@co2)|mof5ca
        92     1     1   -1.65356    27.615891    27.613583    13.733370 # buck6d->(o4_ca4@ca4o)|mof5ca
        93     1     2   -0.74268    26.820863    26.818540    10.296822 # buck6d->(o2_c1ca1@co2)|mof5ca
        94     1     2   -0.74268     0.650639     0.648328    10.296829 # buck6d->(o2_c1ca1@co2)|mof5ca
        95     1     2   -0.74268     0.650638     3.289836    12.938336 # buck6d->(o2_c1ca1@co2)|mof5ca
        96     1     2   -0.74268    26.820851     3.289842    14.528399 # buck6d->(o2_c1ca1@co2)|mof5ca
        97     1     2   -0.74268    26.820849     0.648343    17.169908 # buck6d->(o2_c1ca1@co2)|mof5ca
        98     1     2   -0.74268     0.650632    26.818566    17.169917 # buck6d->(o2_c1ca1@co2)|mof5ca
        99     1     2   -0.74268    24.179353    26.818539    12.938321 # buck6d->(o2_c1ca1@co2)|mof5ca
       100     1     2   -0.74268    24.179347     0.648323    14.528387 # buck6d->(o2_c1ca1@co2)|mof5ca
       101     1     2   -0.74268     3.292150    26.818554    14.528412 # buck6d->(o2_c1ca1@co2)|mof5ca
       102     1     2   -0.74268     3.292146     0.648328    12.938337 # buck6d->(o2_c1ca1@co2)|mof5ca
       103     1     2   -0.74268     0.650651    24.177045    14.528414 # buck6d->(o2_c1ca1@co2)|mof5ca
       104     1     2   -0.74268    26.820874    24.177036    12.938341 # buck6d->(o2_c1ca1@co2)|mof5ca
       105     1     3    1.57579     1.167147    26.302098    26.301972 # buck6d->(ca4_o4@ca4o)|mof5ca
       106     1     3    1.57579    26.304345    26.302092     1.164759 # buck6d->(ca4_o4@ca4o)|mof5ca
       107     1     3    1.57579    26.304361     1.164899    26.301970 # buck6d->(ca4_o4@ca4o)|mof5ca
       108     1     3    1.57579     1.167153     1.164883     1.164775 # buck6d->(ca4_o4@ca4o)|mof5ca
       109     1     3    1.57579    15.047291    26.302098     1.164714 # buck6d->(ca4_o4@ca4o)|mof5ca
       110     1     3    1.57579    12.424201    26.302095    26.301926 # buck6d->(ca4_o4@ca4o)|mof5ca
       111     1     3    1.57579    12.424218     1.164900     1.164715 # buck6d->(ca4_o4@ca4o)|mof5ca
       112     1     3    1.57579    15.047297     1.164885    26.301911 # buck6d->(ca4_o4@ca4o)|mof5ca
       113     1     3    1.57579     1.167210    12.421949     1.164759 # buck6d->(ca4_o4@ca4o)|mof5ca
       114     1     3    1.57579    26.304408    12.421952    26.301972 # buck6d->(ca4_o4@ca4o)|mof5ca
       115     1     3    1.57579    26.304405    15.045028     1.164772 # buck6d->(ca4_o4@ca4o)|mof5ca
       116     1     3    1.57579     1.167195    15.045043    26.301967 # buck6d->(ca4_o4@ca4o)|mof5ca
       117     1     3    1.57579    15.047354    12.421951    26.301924 # buck6d->(ca4_o4@ca4o)|mof5ca
       118     1     3    1.57579    12.424264    12.421953     1.164711 # buck6d->(ca4_o4@ca4o)|mof5ca
       119     1     3    1.57579    12.424260    15.045030    26.301910 # buck6d->(ca4_o4@ca4o)|mof5ca
       120     1     3    1.57579    15.047340    15.045044     1.164715 # buck6d->(ca4_o4@ca4o)|mof5ca
       121     1     3    1.57579    15.047291    26.302050    12.421766 # buck6d->(ca4_o4@ca4o)|mof5ca
       122     1     3    1.57579    12.424213    26.302035    15.044861 # buck6d->(ca4_o4@ca4o)|mof5ca
       123     1     3    1.57579    12.424200     1.164841    12.421782 # buck6d->(ca4_o4@ca4o)|mof5ca
       124     1     3    1.57579    15.047292     1.164837    15.044856 # buck6d->(ca4_o4@ca4o)|mof5ca
       125     1     3    1.57579    15.047337    12.421892    15.044859 # buck6d->(ca4_o4@ca4o)|mof5ca
       126     1     3    1.57579    12.424258    12.421905    12.421765 # buck6d->(ca4_o4@ca4o)|mof5ca
       127     1     3    1.57579    12.424260    15.044981    15.044855 # buck6d->(ca4_o4@ca4o)|mof5ca
       128     1     3    1.57579    15.047351    15.044985    12.421780 # buck6d->(ca4_o4@ca4o)|mof5ca
       129     1     3    1.57579     1.167192    12.421889    12.421823 # buck6d->(ca4_o4@ca4o)|mof5ca
       130     1     3    1.57579    26.304401    12.421905    15.044917 # buck6d->(ca4_o4@ca4o)|mof5ca
       131     1     3    1.57579    26.304406    15.044981    12.421827 # buck6d->(ca4_o4@ca4o)|mof5ca
       132     1     3    1.57579     1.167208    15.044982    15.044903 # buck6d->(ca4_o4@ca4o)|mof5ca
       133     1     3    1.57579     1.167147    26.302049    15.044920 # buck6d->(ca4_o4@ca4o)|mof5ca
       134     1     3    1.57579    26.304358    26.302033    12.421825 # buck6d->(ca4_o4@ca4o)|mof5ca
       135     1     3    1.57579    26.304344     1.164839    15.044904 # buck6d->(ca4_o4@ca4o)|mof5ca
       136     1     3    1.57579     1.167146     1.164836    12.421828 # buck6d->(ca4_o4@ca4o)|mof5ca
       137     1     4    0.65642    27.615889    27.613616     3.893947 # buck6d->(c3_c1o2@co2)|mof5ca
       138     1     4    0.65642    27.615914     3.894071    27.613523 # buck6d->(c3_c1o2@co2)|mof5ca
       139     1     4    0.65642    27.615894    27.613643    23.572790 # buck6d->(c3_c1o2@co2)|mof5ca
       140     1     4    0.65642    23.575172    27.613642    27.613496 # buck6d->(c3_c1o2@co2)|mof5ca
       141     1     4    0.65642     3.896329    27.613638    27.613514 # buck6d->(c3_c1o2@co2)|mof5ca
       142     1     4    0.65642    27.615894    23.572915    27.613509 # buck6d->(c3_c1o2@co2)|mof5ca
       143     1     4    0.65642    13.735745    27.613622    23.572738 # buck6d->(c3_c1o2@co2)|mof5ca
       144     1     4    0.65642    13.735771     3.894073    27.613455 # buck6d->(c3_c1o2@co2)|mof5ca
       145     1     4    0.65642    13.735749    27.613639     3.893895 # buck6d->(c3_c1o2@co2)|mof5ca
       146     1     4    0.65642     9.695028    27.613645    27.613477 # buck6d->(c3_c1o2@co2)|mof5ca
       147     1     4    0.65642    17.776473    27.613638    27.613461 # buck6d->(c3_c1o2@co2)|mof5ca
       148     1     4    0.65642    13.735749    23.572916    27.613461 # buck6d->(c3_c1o2@co2)|mof5ca
       149     1     4    0.65642    27.615948    13.733492    23.572789 # buck6d->(c3_c1o2@co2)|mof5ca
       150     1     4    0.65642    27.615933    17.774216    27.613517 # buck6d->(c3_c1o2@co2)|mof5ca
       151     1     4    0.65642    27.615955    13.733476     3.893945 # buck6d->(c3_c1o2@co2)|mof5ca
       152     1     4    0.65642    23.575226    13.733494    27.613512 # buck6d->(c3_c1o2@co2)|mof5ca
       153     1     4    0.65642     3.896382    13.733499    27.613494 # buck6d->(c3_c1o2@co2)|mof5ca
       154     1     4    0.65642    27.615949     9.692770    27.613514 # buck6d->(c3_c1o2@co2)|mof5ca
       155     1     4    0.65642    13.735803    13.733496     3.893894 # buck6d->(c3_c1o2@co2)|mof5ca
       156     1     4    0.65642    13.735786    17.774217    27.613454 # buck6d->(c3_c1o2@co2)|mof5ca
       157     1     4    0.65642    13.735810    13.733477    23.572737 # buck6d->(c3_c1o2@co2)|mof5ca
       158     1     4    0.65642     9.695081    13.733492    27.613456 # buck6d->(c3_c1o2@co2)|mof5ca
       159     1     4    0.65642    17.776527    13.733502    27.613477 # buck6d->(c3_c1o2@co2)|mof5ca
       160     1     4    0.65642    13.735808     9.692772    27.613461 # buck6d->(c3_c1o2@co2)|mof5ca
       161     1     4    0.65642    13.735752    27.613584    17.774040 # buck6d->(c3_c1o2@co2)|mof5ca
       162     1     4    0.65642    13.735750     3.894020    13.733317 # buck6d->(c3_c1o2@co2)|mof5ca
       163     1     4    0.65642    13.735739    27.613603     9.692594 # buck6d->(c3_c1o2@co2)|mof5ca
       164     1     4    0.65642     9.695025    27.613579    13.733337 # buck6d->(c3_c1o2@co2)|mof5ca
       165     1     4    0.65642    17.776471    27.613584    13.733312 # buck6d->(c3_c1o2@co2)|mof5ca
       166     1     4    0.65642    13.735764    23.572862    13.733311 # buck6d->(c3_c1o2@co2)|mof5ca
       167     1     4    0.65642    13.735808    13.733458     9.692592 # buck6d->(c3_c1o2@co2)|mof5ca
       168     1     4    0.65642    13.735801    17.774164    13.733316 # buck6d->(c3_c1o2@co2)|mof5ca
       169     1     4    0.65642    13.735802    13.733441    17.774038 # buck6d->(c3_c1o2@co2)|mof5ca
       170     1     4    0.65642     9.695079    13.733438    13.733313 # buck6d->(c3_c1o2@co2)|mof5ca
       171     1     4    0.65642    17.776524    13.733436    13.733332 # buck6d->(c3_c1o2@co2)|mof5ca
       172     1     4    0.65642    13.735786     9.692718    13.733309 # buck6d->(c3_c1o2@co2)|mof5ca
       173     1     4    0.65642    27.615953    13.733456    17.774090 # buck6d->(c3_c1o2@co2)|mof5ca
       174     1     4    0.65642    27.615951    17.774162    13.733368 # buck6d->(c3_c1o2@co2)|mof5ca
       175     1     4    0.65642    27.615946    13.733439     9.692644 # buck6d->(c3_c1o2@co2)|mof5ca
       176     1     4    0.65642    23.575223    13.733443    13.733369 # buck6d->(c3_c1o2@co2)|mof5ca
       177     1     4    0.65642     3.896380    13.733430    13.733350 # buck6d->(c3_c1o2@co2)|mof5ca
       178     1     4    0.65642    27.615926     9.692717    13.733373 # buck6d->(c3_c1o2@co2)|mof5ca
       179     1     4    0.65642    27.615893    27.613581     9.692646 # buck6d->(c3_c1o2@co2)|mof5ca
       180     1     4    0.65642    27.615892     3.894018    13.733368 # buck6d->(c3_c1o2@co2)|mof5ca
       181     1     4    0.65642    27.615885    27.613603    17.774092 # buck6d->(c3_c1o2@co2)|mof5ca
       182     1     4    0.65642    23.575169    27.613576    13.733350 # buck6d->(c3_c1o2@co2)|mof5ca
       183     1     4    0.65642     3.896327    27.613584    13.733372 # buck6d->(c3_c1o2@co2)|mof5ca
       184     1     4    0.65642    27.615911    23.572861    13.733377 # buck6d->(c3_c1o2@co2)|mof5ca
       185     1     5   -0.18321     6.100341     0.710373     0.710234 # buck6d->(c3_c2h1@ph)|mof5ca
       186     1     5   -0.18321     7.491030     0.710375     0.710225 # buck6d->(c3_c2h1@ph)|mof5ca
       187     1     6    0.12479     8.197128    27.613643    27.613487 # buck6d->(c3_c3@ph)|mof5ca
       188     1     5   -0.18321     7.491019    26.756621    26.756469 # buck6d->(c3_c2h1@ph)|mof5ca
       189     1     5   -0.18321     6.100329    26.756620    26.756478 # buck6d->(c3_c2h1@ph)|mof5ca
       190     1     6    0.12479     5.394229    27.613640    27.613505 # buck6d->(c3_c3@ph)|mof5ca
       191     1     5   -0.18321    21.371174     0.710371    26.756457 # buck6d->(c3_c2h1@ph)|mof5ca
       192     1     5   -0.18321    19.980485     0.710370    26.756448 # buck6d->(c3_c2h1@ph)|mof5ca
       193     1     6    0.12479    19.274373    27.613639    27.613470 # buck6d->(c3_c3@ph)|mof5ca
       194     1     5   -0.18321    19.980474    26.756621     0.710210 # buck6d->(c3_c2h1@ph)|mof5ca
       195     1     5   -0.18321    21.371163    26.756622     0.710219 # buck6d->(c3_c2h1@ph)|mof5ca
       196     1     6    0.12479    22.077273    27.613641    27.613487 # buck6d->(c3_c3@ph)|mof5ca
       197     1     5   -0.18321    26.758903     6.098080    26.756501 # buck6d->(c3_c2h1@ph)|mof5ca
       198     1     5   -0.18321    26.758912     7.488770    26.756499 # buck6d->(c3_c2h1@ph)|mof5ca
       199     1     6    0.12479    27.615941     8.194871    27.613517 # buck6d->(c3_c3@ph)|mof5ca
       200     1     5   -0.18321     0.712673     7.488761     0.710248 # buck6d->(c3_c2h1@ph)|mof5ca
       201     1     5   -0.18321     0.712664     6.098071     0.710250 # buck6d->(c3_c2h1@ph)|mof5ca
       202     1     6    0.12479    27.615923     5.391971    27.613521 # buck6d->(c3_c3@ph)|mof5ca
       203     1     5   -0.18321    26.758886    21.368905     0.710244 # buck6d->(c3_c2h1@ph)|mof5ca
       204     1     5   -0.18321    26.758895    19.978215     0.710246 # buck6d->(c3_c2h1@ph)|mof5ca
       205     1     6    0.12479    27.615922    19.272115    27.613515 # buck6d->(c3_c3@ph)|mof5ca
       206     1     5   -0.18321     0.712652    19.978225    26.756494 # buck6d->(c3_c2h1@ph)|mof5ca
       207     1     5   -0.18321     0.712643    21.368915    26.756492 # buck6d->(c3_c2h1@ph)|mof5ca
       208     1     6    0.12479    27.615904    22.075015    27.613511 # buck6d->(c3_c3@ph)|mof5ca
       209     1     5   -0.18321    26.758869    26.756580     6.097947 # buck6d->(c3_c2h1@ph)|mof5ca
       210     1     5   -0.18321    26.758870    26.756572     7.488637 # buck6d->(c3_c2h1@ph)|mof5ca
       211     1     6    0.12479    27.615892    27.613589     8.194746 # buck6d->(c3_c3@ph)|mof5ca
       212     1     5   -0.18321     0.712627     0.710328     7.488646 # buck6d->(c3_c2h1@ph)|mof5ca
       213     1     5   -0.18321     0.712626     0.710336     6.097956 # buck6d->(c3_c2h1@ph)|mof5ca
       214     1     6    0.12479    27.615890    27.613607     5.391847 # buck6d->(c3_c3@ph)|mof5ca
       215     1     5   -0.18321     0.712623    26.756606    21.368790 # buck6d->(c3_c2h1@ph)|mof5ca
       216     1     5   -0.18321     0.712620    26.756596    19.978101 # buck6d->(c3_c2h1@ph)|mof5ca
       217     1     6    0.12479    27.615887    27.613614    19.271991 # buck6d->(c3_c3@ph)|mof5ca
       218     1     5   -0.18321    26.758869     0.710353    19.978092 # buck6d->(c3_c2h1@ph)|mof5ca
       219     1     5   -0.18321    26.758872     0.710363    21.368781 # buck6d->(c3_c2h1@ph)|mof5ca
       220     1     6    0.12479    27.615892    27.613633    22.074891 # buck6d->(c3_c3@ph)|mof5ca
       221     1     5   -0.18321    12.878763     6.098081     0.710189 # buck6d->(c3_c2h1@ph)|mof5ca
       222     1     5   -0.18321    12.878772     7.488771     0.710190 # buck6d->(c3_c2h1@ph)|mof5ca
       223     1     6    0.12479    13.735799     8.194872    27.613459 # buck6d->(c3_c3@ph)|mof5ca
       224     1     5   -0.18321    14.592817     7.488763    26.756438 # buck6d->(c3_c2h1@ph)|mof5ca
       225     1     5   -0.18321    14.592808     6.098073    26.756436 # buck6d->(c3_c2h1@ph)|mof5ca
       226     1     6    0.12479    13.735781     5.391972    27.613456 # buck6d->(c3_c3@ph)|mof5ca
       227     1     5   -0.18321    12.878738    21.368907    26.756439 # buck6d->(c3_c2h1@ph)|mof5ca
       228     1     5   -0.18321    12.878747    19.978217    26.756438 # buck6d->(c3_c2h1@ph)|mof5ca
       229     1     6    0.12479    13.735776    19.272117    27.613456 # buck6d->(c3_c3@ph)|mof5ca
       230     1     5   -0.18321    14.592796    19.978225     0.710187 # buck6d->(c3_c2h1@ph)|mof5ca
       231     1     5   -0.18321    14.592787    21.368915     0.710189 # buck6d->(c3_c2h1@ph)|mof5ca
       232     1     6    0.12479    13.735758    22.075016    27.613459 # buck6d->(c3_c3@ph)|mof5ca
       233     1     5   -0.18321    12.878727     0.710362     6.097904 # buck6d->(c3_c2h1@ph)|mof5ca
       234     1     5   -0.18321    12.878725     0.710353     7.488593 # buck6d->(c3_c2h1@ph)|mof5ca
       235     1     6    0.12479    13.735741    27.613613     8.194695 # buck6d->(c3_c3@ph)|mof5ca
       236     1     5   -0.18321    14.592762    26.756593     7.488585 # buck6d->(c3_c2h1@ph)|mof5ca
       237     1     5   -0.18321    14.592764    26.756602     6.097896 # buck6d->(c3_c2h1@ph)|mof5ca
       238     1     6    0.12479    13.735746    27.613631     5.391795 # buck6d->(c3_c3@ph)|mof5ca
       239     1     5   -0.18321    14.592770     0.710341    21.368729 # buck6d->(c3_c2h1@ph)|mof5ca
       240     1     5   -0.18321    14.592772     0.710332    19.978039 # buck6d->(c3_c2h1@ph)|mof5ca
       241     1     6    0.12479    13.735750    27.613593    19.271939 # buck6d->(c3_c3@ph)|mof5ca
       242     1     5   -0.18321    12.878729    26.756574    19.978049 # buck6d->(c3_c2h1@ph)|mof5ca
       243     1     5   -0.18321    12.878727    26.756584    21.368738 # buck6d->(c3_c2h1@ph)|mof5ca
       244     1     6    0.12479    13.735747    27.613611    22.074839 # buck6d->(c3_c3@ph)|mof5ca
       245     1     5   -0.18321     6.100392    12.876475     0.710213 # buck6d->(c3_c2h1@ph)|mof5ca
       246     1     5   -0.18321     7.491082    12.876474     0.710204 # buck6d->(c3_c2h1@ph)|mof5ca
       247     1     6    0.12479     8.197182    13.733494    27.613465 # buck6d->(c3_c3@ph)|mof5ca
       248     1     5   -0.18321     7.491072    14.590516    26.756447 # buck6d->(c3_c2h1@ph)|mof5ca
       249     1     5   -0.18321     6.100383    14.590517    26.756456 # buck6d->(c3_c2h1@ph)|mof5ca
       250     1     6    0.12479     5.394282    13.733498    27.613484 # buck6d->(c3_c3@ph)|mof5ca
       251     1     5   -0.18321    21.371225    12.876479    26.756474 # buck6d->(c3_c2h1@ph)|mof5ca
       252     1     5   -0.18321    19.980536    12.876481    26.756466 # buck6d->(c3_c2h1@ph)|mof5ca
       253     1     6    0.12479    19.274426    13.733500    27.613486 # buck6d->(c3_c3@ph)|mof5ca
       254     1     5   -0.18321    19.980528    14.590516     0.710227 # buck6d->(c3_c2h1@ph)|mof5ca
       255     1     5   -0.18321    21.371217    14.590514     0.710236 # buck6d->(c3_c2h1@ph)|mof5ca
       256     1     6    0.12479    22.077326    13.733496    27.613504 # buck6d->(c3_c3@ph)|mof5ca
       257     1     5   -0.18321    26.758930    14.590484     6.097954 # buck6d->(c3_c2h1@ph)|mof5ca
       258     1     5   -0.18321    26.758928    14.590474     7.488644 # buck6d->(c3_c2h1@ph)|mof5ca
       259     1     6    0.12479    27.615948    13.733448     8.194745 # buck6d->(c3_c3@ph)|mof5ca
       260     1     5   -0.18321     0.712682    12.876431     7.488635 # buck6d->(c3_c2h1@ph)|mof5ca
       261     1     5   -0.18321     0.712685    12.876440     6.097946 # buck6d->(c3_c2h1@ph)|mof5ca
       262     1     6    0.12479    27.615953    13.733466     5.391845 # buck6d->(c3_c3@ph)|mof5ca
       263     1     5   -0.18321     0.712679    14.590505    21.368779 # buck6d->(c3_c2h1@ph)|mof5ca
       264     1     5   -0.18321     0.712680    14.590496    19.978090 # buck6d->(c3_c2h1@ph)|mof5ca
       265     1     6    0.12479    27.615952    13.733466    19.271990 # buck6d->(c3_c3@ph)|mof5ca
       266     1     5   -0.18321    26.758934    12.876444    19.978099 # buck6d->(c3_c2h1@ph)|mof5ca
       267     1     5   -0.18321    26.758933    12.876453    21.368789 # buck6d->(c3_c2h1@ph)|mof5ca
       268     1     6    0.12479    27.615950    13.733484    22.074889 # buck6d->(c3_c3@ph)|mof5ca
       269     1     5   -0.18321    12.878784    12.876459     6.097893 # buck6d->(c3_c2h1@ph)|mof5ca
       270     1     5   -0.18321    12.878786    12.876450     7.488583 # buck6d->(c3_c2h1@ph)|mof5ca
       271     1     6    0.12479    13.735807    13.733468     8.194693 # buck6d->(c3_c3@ph)|mof5ca
       272     1     5   -0.18321    14.592827    14.590496     7.488593 # buck6d->(c3_c2h1@ph)|mof5ca
       273     1     5   -0.18321    14.592826    14.590505     6.097903 # buck6d->(c3_c2h1@ph)|mof5ca
       274     1     6    0.12479    13.735805    13.733487     5.391793 # buck6d->(c3_c3@ph)|mof5ca
       275     1     5   -0.18321    14.592826    12.876438    21.368736 # buck6d->(c3_c2h1@ph)|mof5ca
       276     1     5   -0.18321    14.592824    12.876429    19.978047 # buck6d->(c3_c2h1@ph)|mof5ca
       277     1     6    0.12479    13.735804    13.733449    19.271937 # buck6d->(c3_c3@ph)|mof5ca
       278     1     5   -0.18321    12.878787    14.590479    19.978038 # buck6d->(c3_c2h1@ph)|mof5ca
       279     1     5   -0.18321    12.878789    14.590488    21.368728 # buck6d->(c3_c2h1@ph)|mof5ca